 Gaussian 16, Revision B.01,
 Gaussian 16:  ES64L-G16RevB.01 20-Dec-2017

 ----------------------------
 #N AM1 OPT Geom=Connectivity
 ----------------------------

 -----
 C6H14
 -----
 Symbolic Z-matrix:
 Charge =  0 Multiplicity = 1

 SCF Done:  E(RAM1) = -0.627470837147E-01 A.U. after   11 cycles
 SCF Done:  E(RAM1) = -0.709971295695E-01 A.U. after    9 cycles
 SCF Done:  E(RAM1) = -0.715809289293E-01 A.U. after    9 cycles
 SCF Done:  E(RAM1) = -0.716024686686E-01 A.U. after    8 cycles
 SCF Done:  E(RAM1) = -0.716108544349E-01 A.U. after    8 cycles
 Optimization completed.
    -- Stationary point found.

                         Standard orientation:
 ---------------------------------------------------------------------
 Center     Atomic      Atomic             Coordinates (Angstroms)
 Number     Number       Type             X           Y           Z
 ---------------------------------------------------------------------
      1          6           0       -0.418718   -3.122070    0.000000
      2          6           0        0.426601   -1.875069    0.000000
      3          6           0       -0.426601   -0.624793    0.000000
      4          6           0        0.426601    0.624793    0.000000
      5          6           0       -0.426601    1.875069    0.000000
      6          6           0        0.418718    3.122070    0.000000
      7          1           0       -0.229815    4.031159    0.000000
      8          1           0        1.072713    3.155794    0.904816
      9          1           0        1.072713    3.155794   -0.904816
     10          1           0       -1.093807    1.871760   -0.902401
     11          1           0       -1.093807    1.871760    0.902401
     12          1           0        1.093350    0.625466    0.902433
     13          1           0        1.093350    0.625466   -0.902433
     14          1           0       -1.093350   -0.625466   -0.902433
     15          1           0       -1.093350   -0.625466    0.902433
     16          1           0        1.093807   -1.871760    0.902401
     17          1           0        1.093807   -1.871760   -0.902401
     18          1           0        0.229815   -4.031159    0.000000
     19          1           0       -1.072713   -3.155794    0.904816
     20          1           0       -1.072713   -3.155794   -0.904816
 ---------------------------------------------------------------------

 The electronic state is 1-A'.
 Alpha  occ. eigenvalues --   -1.36880  -1.25333  -1.08778  -0.91352  -0.79642
 Alpha  occ. eigenvalues --   -0.79087  -0.61154  -0.55851  -0.55667  -0.53753
 Alpha  occ. eigenvalues --   -0.49557  -0.49216  -0.48343  -0.44485  -0.44263
 Alpha  occ. eigenvalues --   -0.43196  -0.41808  -0.41663  -0.40729
 Alpha virt. eigenvalues --    0.13729   0.13741   0.14726   0.15672   0.15673
 Alpha virt. eigenvalues --    0.16104   0.16796   0.17144   0.17407   0.17537
 Alpha virt. eigenvalues --    0.18157   0.18266   0.18671   0.18753   0.19070

 Mulliken charges:
               1
     1  C   -0.210396
     2  C   -0.158626
     3  C   -0.157928
     4  C   -0.157928
     5  C   -0.158626
     6  C   -0.210396
     7  H    0.071488
     8  H    0.071667
     9  H    0.071667
    10  H    0.077573
    11  H    0.077573
    12  H    0.078491
    13  H    0.078491
    14  H    0.078491
    15  H    0.078491
    16  H    0.077573
    17  H    0.077573
    18  H    0.071488
    19  H    0.071667
    20  H    0.071667
 Sum of Mulliken charges =  -0.00000

 Dipole moment (field-independent basis, Debye):
    X=              0.0000    Y=             -0.0000    Z=              0.0000  Tot=              0.0000
 N-N= 1.599122102275D+02 E-N=-2.420292173260D+02  KE=-5.292332432198D+01
 Symmetry A'   KE=-4.014672245117D+01
 Symmetry A"   KE=-1.277660187081D+01
 B after Tr=    -0.004465   -0.000000    0.002304
         Rot=    1.000000    0.000000   -0.000422   -0.000000 Ang=  -0.05 deg.
 Final structure in terms of initial Z-matrix:
 C
 C,1,B1
 C,2,B2,1,A1
 C,3,B3,2,A2,1,D1,0

 Normal termination of Gaussian 16 at Sun Aug 23 22:04:26 2020.
